# LAMMPS data file written by OVITO Basic 3.7.12
1080 atoms
720 bonds
2 atom types
1 bond types
0.0 15.46196352 xlo xhi
0.0 26.1405436 ylo yhi
0.0 31.5454068944 zlo zhi

Masses

1 15.999  # O
2 91.224  # Zr

Atoms  # full

1 1 1 -2.0 4.6608142667 4.3587366635 0.8210841974
2 1 1 -2.0 2.8195885379 1.3458220471 0.112489186
3 1 1 -2.0 1.8974662921 3.9598764071 2.5162947219
4 1 1 -2.0 3.7869482468 4.3587366635 6.0786520132
5 1 1 -2.0 0.0562405633 1.7446823035 1.8076997104
6 1 1 -2.0 4.7732953933 0.8693720565 4.4364836183
7 1 1 -2.0 1.945722518 1.3458220471 5.3700570017
8 1 2 4.0 3.4761209395 2.8344012101 1.5268103644
9 1 1 -2.0 3.8994293734 0.8693720565 9.694051434
10 1 1 -2.0 4.3363623834 1.7446823035 7.0652675262
11 1 1 -2.0 3.0255633534 0.8693720565 14.9516192498
12 1 1 -2.0 1.4605332821 3.8822866729 5.1450786298
13 1 1 -2.0 3.4624963634 1.7446823035 12.3228353419
14 1 2 4.0 1.2409338905 0.2203468501 1.1019735434
15 1 1 -2.0 1.071856498 1.3458220471 10.6276248175
16 1 1 -2.0 0.5866672622 3.8822866729 10.4026464455
17 1 1 -2.0 1.0236002722 3.9598764071 7.7738625376
18 1 2 4.0 2.6022549196 2.8344012101 6.7843781802
19 1 1 -2.0 0.1979904781 1.3458220471 15.8851926332
20 1 1 -2.0 0.1497342522 3.9598764071 13.0314303534
21 1 2 4.0 1.7283888996 2.8344012101 12.0419459959
22 1 1 -2.0 2.9130822268 4.3587366635 11.3362198289
23 1 1 -2.0 2.1516973335 0.8693720565 20.2091870655
24 1 2 4.0 0.8545228797 2.8344012101 17.2995138116
25 1 1 -2.0 2.0392162069 4.3587366635 16.5937876447
26 1 1 -2.0 4.8667890822 3.8822866729 15.6602142612
27 1 1 -2.0 2.5886303435 1.7446823035 17.5804031577
28 1 1 -2.0 4.4781122981 1.3458220471 21.1427604489
29 1 1 -2.0 3.9929230623 3.8822866729 20.917782077
30 1 1 -2.0 1.1653501869 4.3587366635 21.8513554604
31 1 1 -2.0 1.7147643235 1.7446823035 22.8379709734
32 1 1 -2.0 1.2778313135 0.8693720565 25.4667548813
33 1 1 -2.0 0.291484167 4.3587366635 27.1089232761
34 1 1 -2.0 4.4298560723 3.9598764071 18.2889981691
35 1 2 4.0 0.3670678705 0.2203468501 6.3595413592
36 1 1 -2.0 3.1190570423 3.8822866729 26.1753498927
37 1 1 -2.0 3.6042462782 1.3458220471 26.4003282647
38 1 2 4.0 5.1346446997 2.8344012101 22.5570816274
39 1 1 -2.0 3.5559900523 3.9598764071 23.5465659848
40 1 1 -2.0 0.4039652936 0.8693720565 30.724322697
41 1 1 -2.0 2.2451910224 3.8822866729 31.4329177084
42 1 1 -2.0 0.8408983036 1.7446823035 28.0955387891
43 1 2 4.0 4.2607786798 2.8344012101 27.8146494431
44 1 1 -2.0 2.6821240323 3.9598764071 28.8041338006
45 1 2 4.0 4.6471896906 0.2203468501 11.6171091749
46 1 2 4.0 3.7733236706 0.2203468501 16.8746769907
47 1 2 4.0 2.8994576507 0.2203468501 22.1322448064
48 1 2 4.0 2.0255916307 0.2203468501 27.3898126221
49 1 1 -2.0 4.2238812567 3.4834264165 3.4498681053
50 1 2 4.0 3.0391879296 5.0077618699 4.1555942723
51 1 1 -2.0 3.3500152368 3.4834264165 8.707435921
52 1 1 -2.0 2.3826555279 1.2682323129 2.7412730939
53 1 2 4.0 2.1653219096 5.0077618699 9.413162088
54 1 1 -2.0 2.4761492168 3.4834264165 13.9650037368
55 1 2 4.0 0.8040008805 2.3937075099 3.7307574513
56 1 1 -2.0 1.508789508 1.2682323129 7.9988409096
57 1 2 4.0 1.2914558896 5.0077618699 14.6707299038
58 1 1 -2.0 1.6022831969 3.4834264165 19.2225715525
59 1 1 -2.0 0.634923488 1.2682323129 13.2564087253
60 1 2 4.0 0.4175898697 5.0077618699 19.9282977195
61 1 2 4.0 5.0841227006 2.3937075099 8.988325267
62 1 1 -2.0 0.7284171769 3.4834264165 24.4801393683
63 1 2 4.0 4.2102566806 2.3937075099 14.2458930828
64 1 2 4.0 4.6977116897 5.0077618699 25.1858655353
65 1 1 -2.0 4.9150453081 1.2682323129 18.5139765411
66 1 2 4.0 3.3363906607 2.3937075099 19.5034608985
67 1 1 -2.0 5.008538997 3.4834264165 29.737707184
68 1 2 4.0 3.8238456698 5.0077618699 30.443433351
69 1 1 -2.0 4.0411792881 1.2682323129 23.7715443568
70 1 2 4.0 2.4625246407 2.3937075099 24.7610287143
71 1 1 -2.0 3.1673132682 1.2682323129 29.0291121726
72 1 2 4.0 1.5886586208 2.3937075099 30.01859653
73 1 1 -2.0 9.8148021067 4.3587366635 0.8210841974
74 1 1 -2.0 7.9735763779 1.3458220471 0.112489186
75 1 1 -2.0 7.0514541321 3.9598764071 2.5162947219
76 1 1 -2.0 8.9409360868 4.3587366635 6.0786520132
77 1 1 -2.0 5.2102284033 1.7446823035 1.8076997104
78 1 1 -2.0 9.9272832333 0.8693720565 4.4364836183
79 1 1 -2.0 7.099710358 1.3458220471 5.3700570017
80 1 2 4.0 8.6301087795 2.8344012101 1.5268103644
81 1 1 -2.0 9.0534172134 0.8693720565 9.694051434
82 1 1 -2.0 9.4903502234 1.7446823035 7.0652675262
83 1 1 -2.0 8.1795511934 0.8693720565 14.9516192498
84 1 1 -2.0 6.6145211221 3.8822866729 5.1450786298
85 1 1 -2.0 8.6164842034 1.7446823035 12.3228353419
86 1 2 4.0 6.3949217305 0.2203468501 1.1019735434
87 1 1 -2.0 6.225844338 1.3458220471 10.6276248175
88 1 1 -2.0 5.7406551022 3.8822866729 10.4026464455
89 1 1 -2.0 6.1775881122 3.9598764071 7.7738625376
90 1 2 4.0 7.7562427596 2.8344012101 6.7843781802
91 1 1 -2.0 5.3519783181 1.3458220471 15.8851926332
92 1 1 -2.0 5.3037220922 3.9598764071 13.0314303534
93 1 2 4.0 6.8823767396 2.8344012101 12.0419459959
94 1 1 -2.0 8.0670700668 4.3587366635 11.3362198289
95 1 1 -2.0 7.3056851735 0.8693720565 20.2091870655
96 1 2 4.0 6.0085107197 2.8344012101 17.2995138116
97 1 1 -2.0 7.1932040469 4.3587366635 16.5937876447
98 1 1 -2.0 10.0207769222 3.8822866729 15.6602142612
99 1 1 -2.0 7.7426181835 1.7446823035 17.5804031577
100 1 1 -2.0 9.6321001381 1.3458220471 21.1427604489
101 1 1 -2.0 9.1469109023 3.8822866729 20.917782077
102 1 1 -2.0 6.3193380269 4.3587366635 21.8513554604
103 1 1 -2.0 6.8687521635 1.7446823035 22.8379709734
104 1 1 -2.0 6.4318191535 0.8693720565 25.4667548813
105 1 1 -2.0 5.445472007 4.3587366635 27.1089232761
106 1 1 -2.0 9.5838439123 3.9598764071 18.2889981691
107 1 2 4.0 5.5210557105 0.2203468501 6.3595413592
108 1 1 -2.0 8.2730448823 3.8822866729 26.1753498927
109 1 1 -2.0 8.7582341182 1.3458220471 26.4003282647
110 1 2 4.0 10.2886325397 2.8344012101 22.5570816274
111 1 1 -2.0 8.7099778923 3.9598764071 23.5465659848
112 1 1 -2.0 5.5579531336 0.8693720565 30.724322697
113 1 1 -2.0 7.3991788624 3.8822866729 31.4329177084
114 1 1 -2.0 5.9948861436 1.7446823035 28.0955387891
115 1 2 4.0 9.4147665198 2.8344012101 27.8146494431
116 1 1 -2.0 7.8361118723 3.9598764071 28.8041338006
117 1 2 4.0 9.8011775306 0.2203468501 11.6171091749
118 1 2 4.0 8.9273115106 0.2203468501 16.8746769907
119 1 2 4.0 8.0534454907 0.2203468501 22.1322448064
120 1 2 4.0 7.1795794707 0.2203468501 27.3898126221
121 1 1 -2.0 9.3778690967 3.4834264165 3.4498681053
122 1 2 4.0 8.1931757696 5.0077618699 4.1555942723
123 1 1 -2.0 8.5040030768 3.4834264165 8.707435921
124 1 1 -2.0 7.5366433679 1.2682323129 2.7412730939
125 1 2 4.0 7.3193097496 5.0077618699 9.413162088
126 1 1 -2.0 7.6301370568 3.4834264165 13.9650037368
127 1 2 4.0 5.9579887205 2.3937075099 3.7307574513
128 1 1 -2.0 6.662777348 1.2682323129 7.9988409096
129 1 2 4.0 6.4454437296 5.0077618699 14.6707299038
130 1 1 -2.0 6.7562710369 3.4834264165 19.2225715525
131 1 1 -2.0 5.788911328 1.2682323129 13.2564087253
132 1 2 4.0 5.5715777097 5.0077618699 19.9282977195
133 1 2 4.0 10.2381105406 2.3937075099 8.988325267
134 1 1 -2.0 5.8824050169 3.4834264165 24.4801393683
135 1 2 4.0 9.3642445206 2.3937075099 14.2458930828
136 1 2 4.0 9.8516995297 5.0077618699 25.1858655353
137 1 1 -2.0 10.0690331481 1.2682323129 18.5139765411
138 1 2 4.0 8.4903785007 2.3937075099 19.5034608985
139 1 1 -2.0 10.162526837 3.4834264165 29.737707184
140 1 2 4.0 8.9778335098 5.0077618699 30.443433351
141 1 1 -2.0 9.1951671281 1.2682323129 23.7715443568
142 1 2 4.0 7.6165124807 2.3937075099 24.7610287143
143 1 1 -2.0 8.3213011082 1.2682323129 29.0291121726
144 1 2 4.0 6.7426464608 2.3937075099 30.01859653
145 1 1 -2.0 14.9687899467 4.3587366635 0.8210841974
146 1 1 -2.0 13.1275642179 1.3458220471 0.112489186
147 1 1 -2.0 12.2054419721 3.9598764071 2.5162947219
148 1 1 -2.0 14.0949239268 4.3587366635 6.0786520132
149 1 1 -2.0 10.3642162433 1.7446823035 1.8076997104
150 1 1 -2.0 15.0812710733 0.8693720565 4.4364836183
151 1 1 -2.0 12.253698198 1.3458220471 5.3700570017
152 1 2 4.0 13.7840966195 2.8344012101 1.5268103644
153 1 1 -2.0 14.2074050534 0.8693720565 9.694051434
154 1 1 -2.0 14.6443380634 1.7446823035 7.0652675262
155 1 1 -2.0 13.3335390334 0.8693720565 14.9516192498
156 1 1 -2.0 11.7685089621 3.8822866729 5.1450786298
157 1 1 -2.0 13.7704720434 1.7446823035 12.3228353419
158 1 2 4.0 11.5489095705 0.2203468501 1.1019735434
159 1 1 -2.0 11.379832178 1.3458220471 10.6276248175
160 1 1 -2.0 10.8946429422 3.8822866729 10.4026464455
161 1 1 -2.0 11.3315759522 3.9598764071 7.7738625376
162 1 2 4.0 12.9102305996 2.8344012101 6.7843781802
163 1 1 -2.0 10.5059661581 1.3458220471 15.8851926332
164 1 1 -2.0 10.4577099322 3.9598764071 13.0314303534
165 1 2 4.0 12.0363645796 2.8344012101 12.0419459959
166 1 1 -2.0 13.2210579068 4.3587366635 11.3362198289
167 1 1 -2.0 12.4596730135 0.8693720565 20.2091870655
168 1 2 4.0 11.1624985597 2.8344012101 17.2995138116
169 1 1 -2.0 12.3471918869 4.3587366635 16.5937876447
170 1 1 -2.0 15.1747647622 3.8822866729 15.6602142612
171 1 1 -2.0 12.8966060235 1.7446823035 17.5804031577
172 1 1 -2.0 14.7860879781 1.3458220471 21.1427604489
173 1 1 -2.0 14.3008987423 3.8822866729 20.917782077
174 1 1 -2.0 11.4733258669 4.3587366635 21.8513554604
175 1 1 -2.0 12.0227400035 1.7446823035 22.8379709734
176 1 1 -2.0 11.5858069935 0.8693720565 25.4667548813
177 1 1 -2.0 10.599459847 4.3587366635 27.1089232761
178 1 1 -2.0 14.7378317523 3.9598764071 18.2889981691
179 1 2 4.0 10.6750435505 0.2203468501 6.3595413592
180 1 1 -2.0 13.4270327223 3.8822866729 26.1753498927
181 1 1 -2.0 13.9122219582 1.3458220471 26.4003282647
182 1 2 4.0 15.4426203797 2.8344012101 22.5570816274
183 1 1 -2.0 13.8639657323 3.9598764071 23.5465659848
184 1 1 -2.0 10.7119409736 0.8693720565 30.724322697
185 1 1 -2.0 12.5531667024 3.8822866729 31.4329177084
186 1 1 -2.0 11.1488739836 1.7446823035 28.0955387891
187 1 2 4.0 14.5687543598 2.8344012101 27.8146494431
188 1 1 -2.0 12.9900997123 3.9598764071 28.8041338006
189 1 2 4.0 14.9551653706 0.2203468501 11.6171091749
190 1 2 4.0 14.0812993506 0.2203468501 16.8746769907
191 1 2 4.0 13.2074333307 0.2203468501 22.1322448064
192 1 2 4.0 12.3335673107 0.2203468501 27.3898126221
193 1 1 -2.0 14.5318569367 3.4834264165 3.4498681053
194 1 2 4.0 13.3471636096 5.0077618699 4.1555942723
195 1 1 -2.0 13.6579909168 3.4834264165 8.707435921
196 1 1 -2.0 12.6906312079 1.2682323129 2.7412730939
197 1 2 4.0 12.4732975896 5.0077618699 9.413162088
198 1 1 -2.0 12.7841248968 3.4834264165 13.9650037368
199 1 2 4.0 11.1119765605 2.3937075099 3.7307574513
200 1 1 -2.0 11.816765188 1.2682323129 7.9988409096
201 1 2 4.0 11.5994315696 5.0077618699 14.6707299038
202 1 1 -2.0 11.9102588769 3.4834264165 19.2225715525
203 1 1 -2.0 10.942899168 1.2682323129 13.2564087253
204 1 2 4.0 10.7255655497 5.0077618699 19.9282977195
205 1 2 4.0 15.3920983806 2.3937075099 8.988325267
206 1 1 -2.0 11.0363928569 3.4834264165 24.4801393683
207 1 2 4.0 14.5182323606 2.3937075099 14.2458930828
208 1 2 4.0 15.0056873697 5.0077618699 25.1858655353
209 1 1 -2.0 15.2230209881 1.2682323129 18.5139765411
210 1 2 4.0 13.6443663407 2.3937075099 19.5034608985
211 1 1 -2.0 15.316514677 3.4834264165 29.737707184
212 1 2 4.0 14.1318213498 5.0077618699 30.443433351
213 1 1 -2.0 14.3491549681 1.2682323129 23.7715443568
214 1 2 4.0 12.7705003207 2.3937075099 24.7610287143
215 1 1 -2.0 13.4752889482 1.2682323129 29.0291121726
216 1 2 4.0 11.8966343008 2.3937075099 30.01859653
217 1 1 -2.0 4.6608142667 9.5868453835 0.8210841974
218 1 1 -2.0 2.8195885379 6.5739307671 0.112489186
219 1 1 -2.0 1.8974662921 9.1879851271 2.5162947219
220 1 1 -2.0 3.7869482468 9.5868453835 6.0786520132
221 1 1 -2.0 0.0562405633 6.9727910235 1.8076997104
222 1 1 -2.0 4.7732953933 6.0974807765 4.4364836183
223 1 1 -2.0 1.945722518 6.5739307671 5.3700570017
224 1 2 4.0 3.4761209395 8.0625099301 1.5268103644
225 1 1 -2.0 3.8994293734 6.0974807765 9.694051434
226 1 1 -2.0 4.3363623834 6.9727910235 7.0652675262
227 1 1 -2.0 3.0255633534 6.0974807765 14.9516192498
228 1 1 -2.0 1.4605332821 9.1103953929 5.1450786298
229 1 1 -2.0 3.4624963634 6.9727910235 12.3228353419
230 1 2 4.0 1.2409338905 5.4484555701 1.1019735434
231 1 1 -2.0 1.071856498 6.5739307671 10.6276248175
232 1 1 -2.0 0.5866672622 9.1103953929 10.4026464455
233 1 1 -2.0 1.0236002722 9.1879851271 7.7738625376
234 1 2 4.0 2.6022549196 8.0625099301 6.7843781802
235 1 1 -2.0 0.1979904781 6.5739307671 15.8851926332
236 1 1 -2.0 0.1497342522 9.1879851271 13.0314303534
237 1 2 4.0 1.7283888996 8.0625099301 12.0419459959
238 1 1 -2.0 2.9130822268 9.5868453835 11.3362198289
239 1 1 -2.0 2.1516973335 6.0974807765 20.2091870655
240 1 2 4.0 0.8545228797 8.0625099301 17.2995138116
241 1 1 -2.0 2.0392162069 9.5868453835 16.5937876447
242 1 1 -2.0 4.8667890822 9.1103953929 15.6602142612
243 1 1 -2.0 2.5886303435 6.9727910235 17.5804031577
244 1 1 -2.0 4.4781122981 6.5739307671 21.1427604489
245 1 1 -2.0 3.9929230623 9.1103953929 20.917782077
246 1 1 -2.0 1.1653501869 9.5868453835 21.8513554604
247 1 1 -2.0 1.7147643235 6.9727910235 22.8379709734
248 1 1 -2.0 1.2778313135 6.0974807765 25.4667548813
249 1 1 -2.0 0.291484167 9.5868453835 27.1089232761
250 1 1 -2.0 4.4298560723 9.1879851271 18.2889981691
251 1 2 4.0 0.3670678705 5.4484555701 6.3595413592
252 1 1 -2.0 3.1190570423 9.1103953929 26.1753498927
253 1 1 -2.0 3.6042462782 6.5739307671 26.4003282647
254 1 2 4.0 5.1346446997 8.0625099301 22.5570816274
255 1 1 -2.0 3.5559900523 9.1879851271 23.5465659848
256 1 1 -2.0 0.4039652936 6.0974807765 30.724322697
257 1 1 -2.0 2.2451910224 9.1103953929 31.4329177084
258 1 1 -2.0 0.8408983036 6.9727910235 28.0955387891
259 1 2 4.0 4.2607786798 8.0625099301 27.8146494431
260 1 1 -2.0 2.6821240323 9.1879851271 28.8041338006
261 1 2 4.0 4.6471896906 5.4484555701 11.6171091749
262 1 2 4.0 3.7733236706 5.4484555701 16.8746769907
263 1 2 4.0 2.8994576507 5.4484555701 22.1322448064
264 1 2 4.0 2.0255916307 5.4484555701 27.3898126221
265 1 1 -2.0 4.2238812567 8.7115351365 3.4498681053
266 1 2 4.0 3.0391879296 10.2358705899 4.1555942723
267 1 1 -2.0 3.3500152368 8.7115351365 8.707435921
268 1 1 -2.0 2.3826555279 6.4963410329 2.7412730939
269 1 2 4.0 2.1653219096 10.2358705899 9.413162088
270 1 1 -2.0 2.4761492168 8.7115351365 13.9650037368
271 1 2 4.0 0.8040008805 7.6218162299 3.7307574513
272 1 1 -2.0 1.508789508 6.4963410329 7.9988409096
273 1 2 4.0 1.2914558896 10.2358705899 14.6707299038
274 1 1 -2.0 1.6022831969 8.7115351365 19.2225715525
275 1 1 -2.0 0.634923488 6.4963410329 13.2564087253
276 1 2 4.0 0.4175898697 10.2358705899 19.9282977195
277 1 2 4.0 5.0841227006 7.6218162299 8.988325267
278 1 1 -2.0 0.7284171769 8.7115351365 24.4801393683
279 1 2 4.0 4.2102566806 7.6218162299 14.2458930828
280 1 2 4.0 4.6977116897 10.2358705899 25.1858655353
281 1 1 -2.0 4.9150453081 6.4963410329 18.5139765411
282 1 2 4.0 3.3363906607 7.6218162299 19.5034608985
283 1 1 -2.0 5.008538997 8.7115351365 29.737707184
284 1 2 4.0 3.8238456698 10.2358705899 30.443433351
285 1 1 -2.0 4.0411792881 6.4963410329 23.7715443568
286 1 2 4.0 2.4625246407 7.6218162299 24.7610287143
287 1 1 -2.0 3.1673132682 6.4963410329 29.0291121726
288 1 2 4.0 1.5886586208 7.6218162299 30.01859653
289 1 1 -2.0 9.8148021067 9.5868453835 0.8210841974
290 1 1 -2.0 7.9735763779 6.5739307671 0.112489186
291 1 1 -2.0 7.0514541321 9.1879851271 2.5162947219
292 1 1 -2.0 8.9409360868 9.5868453835 6.0786520132
293 1 1 -2.0 5.2102284033 6.9727910235 1.8076997104
294 1 1 -2.0 9.9272832333 6.0974807765 4.4364836183
295 1 1 -2.0 7.099710358 6.5739307671 5.3700570017
296 1 2 4.0 8.6301087795 8.0625099301 1.5268103644
297 1 1 -2.0 9.0534172134 6.0974807765 9.694051434
298 1 1 -2.0 9.4903502234 6.9727910235 7.0652675262
299 1 1 -2.0 8.1795511934 6.0974807765 14.9516192498
300 1 1 -2.0 6.6145211221 9.1103953929 5.1450786298
301 1 1 -2.0 8.6164842034 6.9727910235 12.3228353419
302 1 2 4.0 6.3949217305 5.4484555701 1.1019735434
303 1 1 -2.0 6.225844338 6.5739307671 10.6276248175
304 1 1 -2.0 5.7406551022 9.1103953929 10.4026464455
305 1 1 -2.0 6.1775881122 9.1879851271 7.7738625376
306 1 2 4.0 7.7562427596 8.0625099301 6.7843781802
307 1 1 -2.0 5.3519783181 6.5739307671 15.8851926332
308 1 1 -2.0 5.3037220922 9.1879851271 13.0314303534
309 1 2 4.0 6.8823767396 8.0625099301 12.0419459959
310 1 1 -2.0 8.0670700668 9.5868453835 11.3362198289
311 1 1 -2.0 7.3056851735 6.0974807765 20.2091870655
312 1 2 4.0 6.0085107197 8.0625099301 17.2995138116
313 1 1 -2.0 7.1932040469 9.5868453835 16.5937876447
314 1 1 -2.0 10.0207769222 9.1103953929 15.6602142612
315 1 1 -2.0 7.7426181835 6.9727910235 17.5804031577
316 1 1 -2.0 9.6321001381 6.5739307671 21.1427604489
317 1 1 -2.0 9.1469109023 9.1103953929 20.917782077
318 1 1 -2.0 6.3193380269 9.5868453835 21.8513554604
319 1 1 -2.0 6.8687521635 6.9727910235 22.8379709734
320 1 1 -2.0 6.4318191535 6.0974807765 25.4667548813
321 1 1 -2.0 5.445472007 9.5868453835 27.1089232761
322 1 1 -2.0 9.5838439123 9.1879851271 18.2889981691
323 1 2 4.0 5.5210557105 5.4484555701 6.3595413592
324 1 1 -2.0 8.2730448823 9.1103953929 26.1753498927
325 1 1 -2.0 8.7582341182 6.5739307671 26.4003282647
326 1 2 4.0 10.2886325397 8.0625099301 22.5570816274
327 1 1 -2.0 8.7099778923 9.1879851271 23.5465659848
328 1 1 -2.0 5.5579531336 6.0974807765 30.724322697
329 1 1 -2.0 7.3991788624 9.1103953929 31.4329177084
330 1 1 -2.0 5.9948861436 6.9727910235 28.0955387891
331 1 2 4.0 9.4147665198 8.0625099301 27.8146494431
332 1 1 -2.0 7.8361118723 9.1879851271 28.8041338006
333 1 2 4.0 9.8011775306 5.4484555701 11.6171091749
334 1 2 4.0 8.9273115106 5.4484555701 16.8746769907
335 1 2 4.0 8.0534454907 5.4484555701 22.1322448064
336 1 2 4.0 7.1795794707 5.4484555701 27.3898126221
337 1 1 -2.0 9.3778690967 8.7115351365 3.4498681053
338 1 2 4.0 8.1931757696 10.2358705899 4.1555942723
339 1 1 -2.0 8.5040030768 8.7115351365 8.707435921
340 1 1 -2.0 7.5366433679 6.4963410329 2.7412730939
341 1 2 4.0 7.3193097496 10.2358705899 9.413162088
342 1 1 -2.0 7.6301370568 8.7115351365 13.9650037368
343 1 2 4.0 5.9579887205 7.6218162299 3.7307574513
344 1 1 -2.0 6.662777348 6.4963410329 7.9988409096
345 1 2 4.0 6.4454437296 10.2358705899 14.6707299038
346 1 1 -2.0 6.7562710369 8.7115351365 19.2225715525
347 1 1 -2.0 5.788911328 6.4963410329 13.2564087253
348 1 2 4.0 5.5715777097 10.2358705899 19.9282977195
349 1 2 4.0 10.2381105406 7.6218162299 8.988325267
350 1 1 -2.0 5.8824050169 8.7115351365 24.4801393683
351 1 2 4.0 9.3642445206 7.6218162299 14.2458930828
352 1 2 4.0 9.8516995297 10.2358705899 25.1858655353
353 1 1 -2.0 10.0690331481 6.4963410329 18.5139765411
354 1 2 4.0 8.4903785007 7.6218162299 19.5034608985
355 1 1 -2.0 10.162526837 8.7115351365 29.737707184
356 1 2 4.0 8.9778335098 10.2358705899 30.443433351
357 1 1 -2.0 9.1951671281 6.4963410329 23.7715443568
358 1 2 4.0 7.6165124807 7.6218162299 24.7610287143
359 1 1 -2.0 8.3213011082 6.4963410329 29.0291121726
360 1 2 4.0 6.7426464608 7.6218162299 30.01859653
361 1 1 -2.0 14.9687899467 9.5868453835 0.8210841974
362 1 1 -2.0 13.1275642179 6.5739307671 0.112489186
363 1 1 -2.0 12.2054419721 9.1879851271 2.5162947219
364 1 1 -2.0 14.0949239268 9.5868453835 6.0786520132
365 1 1 -2.0 10.3642162433 6.9727910235 1.8076997104
366 1 1 -2.0 15.0812710733 6.0974807765 4.4364836183
367 1 1 -2.0 12.253698198 6.5739307671 5.3700570017
368 1 2 4.0 13.7840966195 8.0625099301 1.5268103644
369 1 1 -2.0 14.2074050534 6.0974807765 9.694051434
370 1 1 -2.0 14.6443380634 6.9727910235 7.0652675262
371 1 1 -2.0 13.3335390334 6.0974807765 14.9516192498
372 1 1 -2.0 11.7685089621 9.1103953929 5.1450786298
373 1 1 -2.0 13.7704720434 6.9727910235 12.3228353419
374 1 2 4.0 11.5489095705 5.4484555701 1.1019735434
375 1 1 -2.0 11.379832178 6.5739307671 10.6276248175
376 1 1 -2.0 10.8946429422 9.1103953929 10.4026464455
377 1 1 -2.0 11.3315759522 9.1879851271 7.7738625376
378 1 2 4.0 12.9102305996 8.0625099301 6.7843781802
379 1 1 -2.0 10.5059661581 6.5739307671 15.8851926332
380 1 1 -2.0 10.4577099322 9.1879851271 13.0314303534
381 1 2 4.0 12.0363645796 8.0625099301 12.0419459959
382 1 1 -2.0 13.2210579068 9.5868453835 11.3362198289
383 1 1 -2.0 12.4596730135 6.0974807765 20.2091870655
384 1 2 4.0 11.1624985597 8.0625099301 17.2995138116
385 1 1 -2.0 12.3471918869 9.5868453835 16.5937876447
386 1 1 -2.0 15.1747647622 9.1103953929 15.6602142612
387 1 1 -2.0 12.8966060235 6.9727910235 17.5804031577
388 1 1 -2.0 14.7860879781 6.5739307671 21.1427604489
389 1 1 -2.0 14.3008987423 9.1103953929 20.917782077
390 1 1 -2.0 11.4733258669 9.5868453835 21.8513554604
391 1 1 -2.0 12.0227400035 6.9727910235 22.8379709734
392 1 1 -2.0 11.5858069935 6.0974807765 25.4667548813
393 1 1 -2.0 10.599459847 9.5868453835 27.1089232761
394 1 1 -2.0 14.7378317523 9.1879851271 18.2889981691
395 1 2 4.0 10.6750435505 5.4484555701 6.3595413592
396 1 1 -2.0 13.4270327223 9.1103953929 26.1753498927
397 1 1 -2.0 13.9122219582 6.5739307671 26.4003282647
398 1 2 4.0 15.4426203797 8.0625099301 22.5570816274
399 1 1 -2.0 13.8639657323 9.1879851271 23.5465659848
400 1 1 -2.0 10.7119409736 6.0974807765 30.724322697
401 1 1 -2.0 12.5531667024 9.1103953929 31.4329177084
402 1 1 -2.0 11.1488739836 6.9727910235 28.0955387891
403 1 2 4.0 14.5687543598 8.0625099301 27.8146494431
404 1 1 -2.0 12.9900997123 9.1879851271 28.8041338006
405 1 2 4.0 14.9551653706 5.4484555701 11.6171091749
406 1 2 4.0 14.0812993506 5.4484555701 16.8746769907
407 1 2 4.0 13.2074333307 5.4484555701 22.1322448064
408 1 2 4.0 12.3335673107 5.4484555701 27.3898126221
409 1 1 -2.0 14.5318569367 8.7115351365 3.4498681053
410 1 2 4.0 13.3471636096 10.2358705899 4.1555942723
411 1 1 -2.0 13.6579909168 8.7115351365 8.707435921
412 1 1 -2.0 12.6906312079 6.4963410329 2.7412730939
413 1 2 4.0 12.4732975896 10.2358705899 9.413162088
414 1 1 -2.0 12.7841248968 8.7115351365 13.9650037368
415 1 2 4.0 11.1119765605 7.6218162299 3.7307574513
416 1 1 -2.0 11.816765188 6.4963410329 7.9988409096
417 1 2 4.0 11.5994315696 10.2358705899 14.6707299038
418 1 1 -2.0 11.9102588769 8.7115351365 19.2225715525
419 1 1 -2.0 10.942899168 6.4963410329 13.2564087253
420 1 2 4.0 10.7255655497 10.2358705899 19.9282977195
421 1 2 4.0 15.3920983806 7.6218162299 8.988325267
422 1 1 -2.0 11.0363928569 8.7115351365 24.4801393683
423 1 2 4.0 14.5182323606 7.6218162299 14.2458930828
424 1 2 4.0 15.0056873697 10.2358705899 25.1858655353
425 1 1 -2.0 15.2230209881 6.4963410329 18.5139765411
426 1 2 4.0 13.6443663407 7.6218162299 19.5034608985
427 1 1 -2.0 15.316514677 8.7115351365 29.737707184
428 1 2 4.0 14.1318213498 10.2358705899 30.443433351
429 1 1 -2.0 14.3491549681 6.4963410329 23.7715443568
430 1 2 4.0 12.7705003207 7.6218162299 24.7610287143
431 1 1 -2.0 13.4752889482 6.4963410329 29.0291121726
432 1 2 4.0 11.8966343008 7.6218162299 30.01859653
433 1 1 -2.0 4.6608142667 14.8149541035 0.8210841974
434 1 1 -2.0 2.8195885379 11.8020394871 0.112489186
435 1 1 -2.0 1.8974662921 14.4160938471 2.5162947219
436 1 1 -2.0 3.7869482468 14.8149541035 6.0786520132
437 1 1 -2.0 0.0562405633 12.2008997435 1.8076997104
438 1 1 -2.0 4.7732953933 11.3255894965 4.4364836183
439 1 1 -2.0 1.945722518 11.8020394871 5.3700570017
440 1 2 4.0 3.4761209395 13.2906186501 1.5268103644
441 1 1 -2.0 3.8994293734 11.3255894965 9.694051434
442 1 1 -2.0 4.3363623834 12.2008997435 7.0652675262
443 1 1 -2.0 3.0255633534 11.3255894965 14.9516192498
444 1 1 -2.0 1.4605332821 14.3385041129 5.1450786298
445 1 1 -2.0 3.4624963634 12.2008997435 12.3228353419
446 1 2 4.0 1.2409338905 10.6765642901 1.1019735434
447 1 1 -2.0 1.071856498 11.8020394871 10.6276248175
448 1 1 -2.0 0.5866672622 14.3385041129 10.4026464455
449 1 1 -2.0 1.0236002722 14.4160938471 7.7738625376
450 1 2 4.0 2.6022549196 13.2906186501 6.7843781802
451 1 1 -2.0 0.1979904781 11.8020394871 15.8851926332
452 1 1 -2.0 0.1497342522 14.4160938471 13.0314303534
453 1 2 4.0 1.7283888996 13.2906186501 12.0419459959
454 1 1 -2.0 2.9130822268 14.8149541035 11.3362198289
455 1 1 -2.0 2.1516973335 11.3255894965 20.2091870655
456 1 2 4.0 0.8545228797 13.2906186501 17.2995138116
457 1 1 -2.0 2.0392162069 14.8149541035 16.5937876447
458 1 1 -2.0 4.8667890822 14.3385041129 15.6602142612
459 1 1 -2.0 2.5886303435 12.2008997435 17.5804031577
460 1 1 -2.0 4.4781122981 11.8020394871 21.1427604489
461 1 1 -2.0 3.9929230623 14.3385041129 20.917782077
462 1 1 -2.0 1.1653501869 14.8149541035 21.8513554604
463 1 1 -2.0 1.7147643235 12.2008997435 22.8379709734
464 1 1 -2.0 1.2778313135 11.3255894965 25.4667548813
465 1 1 -2.0 0.291484167 14.8149541035 27.1089232761
466 1 1 -2.0 4.4298560723 14.4160938471 18.2889981691
467 1 2 4.0 0.3670678705 10.6765642901 6.3595413592
468 1 1 -2.0 3.1190570423 14.3385041129 26.1753498927
469 1 1 -2.0 3.6042462782 11.8020394871 26.4003282647
470 1 2 4.0 5.1346446997 13.2906186501 22.5570816274
471 1 1 -2.0 3.5559900523 14.4160938471 23.5465659848
472 1 1 -2.0 0.4039652936 11.3255894965 30.724322697
473 1 1 -2.0 2.2451910224 14.3385041129 31.4329177084
474 1 1 -2.0 0.8408983036 12.2008997435 28.0955387891
475 1 2 4.0 4.2607786798 13.2906186501 27.8146494431
476 1 1 -2.0 2.6821240323 14.4160938471 28.8041338006
477 1 2 4.0 4.6471896906 10.6765642901 11.6171091749
478 1 2 4.0 3.7733236706 10.6765642901 16.8746769907
479 1 2 4.0 2.8994576507 10.6765642901 22.1322448064
480 1 2 4.0 2.0255916307 10.6765642901 27.3898126221
481 1 1 -2.0 4.2238812567 13.9396438565 3.4498681053
482 1 2 4.0 3.0391879296 15.4639793099 4.1555942723
483 1 1 -2.0 3.3500152368 13.9396438565 8.707435921
484 1 1 -2.0 2.3826555279 11.7244497529 2.7412730939
485 1 2 4.0 2.1653219096 15.4639793099 9.413162088
486 1 1 -2.0 2.4761492168 13.9396438565 13.9650037368
487 1 2 4.0 0.8040008805 12.8499249499 3.7307574513
488 1 1 -2.0 1.508789508 11.7244497529 7.9988409096
489 1 2 4.0 1.2914558896 15.4639793099 14.6707299038
490 1 1 -2.0 1.6022831969 13.9396438565 19.2225715525
491 1 1 -2.0 0.634923488 11.7244497529 13.2564087253
492 1 2 4.0 0.4175898697 15.4639793099 19.9282977195
493 1 2 4.0 5.0841227006 12.8499249499 8.988325267
494 1 1 -2.0 0.7284171769 13.9396438565 24.4801393683
495 1 2 4.0 4.2102566806 12.8499249499 14.2458930828
496 1 2 4.0 4.6977116897 15.4639793099 25.1858655353
497 1 1 -2.0 4.9150453081 11.7244497529 18.5139765411
498 1 2 4.0 3.3363906607 12.8499249499 19.5034608985
499 1 1 -2.0 5.008538997 13.9396438565 29.737707184
500 1 2 4.0 3.8238456698 15.4639793099 30.443433351
501 1 1 -2.0 4.0411792881 11.7244497529 23.7715443568
502 1 2 4.0 2.4625246407 12.8499249499 24.7610287143
503 1 1 -2.0 3.1673132682 11.7244497529 29.0291121726
504 1 2 4.0 1.5886586208 12.8499249499 30.01859653
505 1 1 -2.0 9.8148021067 14.8149541035 0.8210841974
506 1 1 -2.0 7.9735763779 11.8020394871 0.112489186
507 1 1 -2.0 7.0514541321 14.4160938471 2.5162947219
508 1 1 -2.0 8.9409360868 14.8149541035 6.0786520132
509 1 1 -2.0 5.2102284033 12.2008997435 1.8076997104
510 1 1 -2.0 9.9272832333 11.3255894965 4.4364836183
511 1 1 -2.0 7.099710358 11.8020394871 5.3700570017
512 1 2 4.0 8.6301087795 13.2906186501 1.5268103644
513 1 1 -2.0 9.0534172134 11.3255894965 9.694051434
514 1 1 -2.0 9.4903502234 12.2008997435 7.0652675262
515 1 1 -2.0 8.1795511934 11.3255894965 14.9516192498
516 1 1 -2.0 6.6145211221 14.3385041129 5.1450786298
517 1 1 -2.0 8.6164842034 12.2008997435 12.3228353419
518 1 2 4.0 6.3949217305 10.6765642901 1.1019735434
519 1 1 -2.0 6.225844338 11.8020394871 10.6276248175
520 1 1 -2.0 5.7406551022 14.3385041129 10.4026464455
521 1 1 -2.0 6.1775881122 14.4160938471 7.7738625376
522 1 2 4.0 7.7562427596 13.2906186501 6.7843781802
523 1 1 -2.0 5.3519783181 11.8020394871 15.8851926332
524 1 1 -2.0 5.3037220922 14.4160938471 13.0314303534
525 1 2 4.0 6.8823767396 13.2906186501 12.0419459959
526 1 1 -2.0 8.0670700668 14.8149541035 11.3362198289
527 1 1 -2.0 7.3056851735 11.3255894965 20.2091870655
528 1 2 4.0 6.0085107197 13.2906186501 17.2995138116
529 1 1 -2.0 7.1932040469 14.8149541035 16.5937876447
530 1 1 -2.0 10.0207769222 14.3385041129 15.6602142612
531 1 1 -2.0 7.7426181835 12.2008997435 17.5804031577
532 1 1 -2.0 9.6321001381 11.8020394871 21.1427604489
533 1 1 -2.0 9.1469109023 14.3385041129 20.917782077
534 1 1 -2.0 6.3193380269 14.8149541035 21.8513554604
535 1 1 -2.0 6.8687521635 12.2008997435 22.8379709734
536 1 1 -2.0 6.4318191535 11.3255894965 25.4667548813
537 1 1 -2.0 5.445472007 14.8149541035 27.1089232761
538 1 1 -2.0 9.5838439123 14.4160938471 18.2889981691
539 1 2 4.0 5.5210557105 10.6765642901 6.3595413592
540 1 1 -2.0 8.2730448823 14.3385041129 26.1753498927
541 1 1 -2.0 8.7582341182 11.8020394871 26.4003282647
542 1 2 4.0 10.2886325397 13.2906186501 22.5570816274
543 1 1 -2.0 8.7099778923 14.4160938471 23.5465659848
544 1 1 -2.0 5.5579531336 11.3255894965 30.724322697
545 1 1 -2.0 7.3991788624 14.3385041129 31.4329177084
546 1 1 -2.0 5.9948861436 12.2008997435 28.0955387891
547 1 2 4.0 9.4147665198 13.2906186501 27.8146494431
548 1 1 -2.0 7.8361118723 14.4160938471 28.8041338006
549 1 2 4.0 9.8011775306 10.6765642901 11.6171091749
550 1 2 4.0 8.9273115106 10.6765642901 16.8746769907
551 1 2 4.0 8.0534454907 10.6765642901 22.1322448064
552 1 2 4.0 7.1795794707 10.6765642901 27.3898126221
553 1 1 -2.0 9.3778690967 13.9396438565 3.4498681053
554 1 2 4.0 8.1931757696 15.4639793099 4.1555942723
555 1 1 -2.0 8.5040030768 13.9396438565 8.707435921
556 1 1 -2.0 7.5366433679 11.7244497529 2.7412730939